 Q-Chem 5.1, Q-Chem, Inc., Pleasanton, CA (2018)
 Q-Chem 5.1.1 for Mac (Intel) OS X

User input:
--------------------------------------------------------------
$molecule
 read coord.qcin
$end

$rem
JOBTYPE                 SP
BASIS                   VDZ
THRESH                  12
n_frozen_core           FC
METHOD                  ADC(1)
ee_singlets             [0,0,0,0,0,0,0,2]
ee_triplets             [0,0,0,0,0,0,0,2]
adc_davidson_conv       4
adc_davidson_maxsubspace 21
adc_nguess_singles      9
adc_print               3
MEM_STATIC              2000
MEM_TOTAL               33000
MAKE_CUBE_FILES         false
GUI                     2
state_analysis          true
nto_pairs               5
molden_format           false
$end
--------------------------------------------------------------

             Standard Nuclear Orientation (Angstroms)
    I     Atom           X                Y                Z
 ----------------------------------------------------------------
    1      C      -0.0000000000    -0.7178510000    -0.0000000000
    2      C      -1.2448800000    -1.4070900000    -0.0000000000
    3      C      -2.4402300000    -0.7093210000    -0.0000000000
    4      C      -2.4402300000     0.7093210000    -0.0000000000
    5      C      -1.2448800000     1.4070900000    -0.0000000000
    6      C       0.0000000000     0.7178510000     0.0000000000
    7      C       1.2448800000     1.4070900000     0.0000000000
    8      C       2.4402300000     0.7093210000     0.0000000000
    9      H      -1.2438000000    -2.5047300000    -0.0000000000
   10      H      -3.3926400000    -1.2530100000    -0.0000000000
   11      H      -3.3926400000     1.2530100000    -0.0000000000
   12      H      -1.2438000000     2.5047300000    -0.0000000000
   13      H       1.2438000000     2.5047300000     0.0000000000
   14      C       2.4402300000    -0.7093210000     0.0000000000
   15      C       1.2448800000    -1.4070900000     0.0000000000
   16      H       3.3926400000     1.2530100000     0.0000000000
   17      H       3.3926400000    -1.2530100000     0.0000000000
   18      H       1.2438000000    -2.5047300000     0.0000000000
 ----------------------------------------------------------------

   12    -382.9127937105      3.33E-09 Convergence criterion met
 Total energy in the final basis set = -382.91279371
  Excited state 1 (triplet, B3u)                                   [converged]
  Term symbol:  1 (3) B3u                                   R^2 =  5.02713e-05
  Excitation energy:                                               4.361175 eV
  Excited state 2 (triplet, B3u)                                   [converged]
  Term symbol:  2 (3) B3u                                   R^2 =  3.43122e-06
  Excitation energy:                                               5.176463 eV
  Excited state 3 (singlet, B3u)                                   [converged]
  Term symbol:  1 (1) B3u                                   R^2 =  5.71351e-07
  Excitation energy:                                               5.401286 eV
  Excited state 4 (singlet, B3u)                                   [converged]
  Term symbol:  2 (1) B3u                                   R^2 =  3.46258e-05
  Excitation energy:                                               7.360396 eV

             Orbital Energies (a.u.) and Symmetries
 --------------------------------------------------------------

 Alpha MOs, Restricted
 -- Occupied --
-11.257 -11.256 -11.250 -11.250 -11.250 -11.250 -11.249 -11.249
  1 Ag    1 B2u   1 B3u   2 Ag    1 B1g   2 B2u   2 B3u   3 Ag
-11.248 -11.248  -1.174  -1.106  -1.045  -1.004  -0.976  -0.851
  2 B1g   3 B2u   4 Ag    3 B3u   4 B2u   5 Ag    3 B1g   4 B3u
 -0.835  -0.811  -0.705  -0.702  -0.684  -0.622  -0.620  -0.593
  5 B2u   6 Ag    5 B3u   4 B1g   7 Ag    6 B2u   8 Ag    6 B3u
 -0.589  -0.565  -0.539  -0.529  -0.492  -0.480  -0.452  -0.392
  5 B1g   7 B2u   1 B1u   7 B3u   6 B1g   9 Ag    1 B2g   1 B3g
 -0.327  -0.292
  2 B1u   1 Au

 Beta MOs, Restricted
 -- Occupied --
-11.257 -11.256 -11.250 -11.250 -11.250 -11.250 -11.249 -11.249
  1 Ag    1 B2u   1 B3u   2 Ag    1 B1g   2 B2u   2 B3u   3 Ag
-11.248 -11.248  -1.174  -1.106  -1.045  -1.004  -0.976  -0.851
  2 B1g   3 B2u   4 Ag    3 B3u   4 B2u   5 Ag    3 B1g   4 B3u
 -0.835  -0.811  -0.705  -0.702  -0.684  -0.622  -0.620  -0.593
  5 B2u   6 Ag    5 B3u   4 B1g   7 Ag    6 B2u   8 Ag    6 B3u
 -0.589  -0.565  -0.539  -0.529  -0.492  -0.480  -0.452  -0.392
  5 B1g   7 B2u   1 B1u   7 B3u   6 B1g   9 Ag    1 B2g   1 B3g
 -0.327  -0.292
  2 B1u   1 Au

          Ground-State Mulliken Net Atomic Charges

     Atom                 Charge (a.u.)
  ----------------------------------------
      1 C                    -0.063827
      2 C                    -0.096639
      3 C                    -0.121040
      4 C                    -0.121040
      5 C                    -0.096639
      6 C                    -0.063827
      7 C                    -0.096639
      8 C                    -0.121040
      9 H                     0.122217
     10 H                     0.127377
     11 H                     0.127377
     12 H                     0.122217
     13 H                     0.122217
     14 C                    -0.121040
     15 C                    -0.096639
     16 H                     0.127377
     17 H                     0.127377
     18 H                     0.122217
  ----------------------------------------
  Sum of atomic charges =     0.000000

                    Cartesian Multipole Moments
 -----------------------------------------------------------------
    Charge (ESU x 10^10)
                 0.0000
    Dipole Moment (Debye)
         X      -0.0000      Y      -0.0000      Z       0.0000
       Tot       0.0000
    Quadrupole Moments (Debye-Ang)
        XX     -52.8353     XY      -0.0000     YY     -52.8193
        XZ       0.0000     YZ       0.0000     ZZ     -66.4874

 Total job time:  33.81s(wall), 71.13s(cpu)
        *  Thank you very much for using Q-Chem.  Have a nice day.  *
