 Gaussian 09, Revision E.01,
 Gaussian 09:  EM64M-G09RevE.01 30-Nov-2015

 -------------------------------
 # PBE1PBE/Def2SVP scf=tight nmr
 -------------------------------

 ------------
 ../qchem.out
 ------------
 Symbolic Z-matrix:
 Charge = -2 Multiplicity = 1

                          Input orientation:
 ---------------------------------------------------------------------
 Center     Atomic      Atomic             Coordinates (Angstroms)
 Number     Number       Type             X           Y           Z
 ---------------------------------------------------------------------
      1          6           0        4.045180   -0.576900    0.052540
      2          6           0        4.775630    0.652460    0.069020
      3          6           0        4.394540    1.975380   -0.127250
      4          6           0        3.124710    2.631300   -0.084220
      5          6           0        2.978400    3.959520   -0.582010
      6          6           0        1.951660    2.089330    0.525820
      7          6           0        1.772370    4.629070   -0.565700
      8          6           0        0.749140    2.756650    0.541310
      9          6           0        0.576900    4.045180   -0.052540
     10          6           0       -0.652460    4.775630   -0.069020
     11          6           0       -1.975380    4.394540    0.127250
     12          6           0       -2.631300    3.124710    0.084220
     13          6           0       -3.959520    2.978400    0.582010
     14          6           0       -2.089330    1.951660   -0.525820
     15          6           0       -4.629070    1.772370    0.565700
     16          6           0       -2.756650    0.749140   -0.541310
     17          6           0       -4.045180    0.576900    0.052540
     18          6           0       -4.775630   -0.652460    0.069020
     19          6           0       -4.394540   -1.975380   -0.127250
     20          6           0       -3.124710   -2.631300   -0.084220
     21          6           0       -2.978400   -3.959520   -0.582010
     22          6           0       -1.951660   -2.089330    0.525820
     23          6           0       -1.772370   -4.629070   -0.565700
     24          6           0       -0.749140   -2.756650    0.541310
     25          6           0       -0.576900   -4.045180   -0.052540
     26          6           0        0.652460   -4.775630   -0.069020
     27          6           0        1.975380   -4.394540    0.127250
     28          6           0        2.631300   -3.124710    0.084220
     29          6           0        3.959520   -2.978400    0.582010
     30          6           0        2.089330   -1.951660   -0.525820
     31          6           0        2.756650   -0.749140   -0.541310
     32          6           0        4.629070   -1.772370    0.565700
     33          1           0        5.857110    0.514810    0.230070
     34          1           0        5.235550    2.664820   -0.305940
     35          1           0        3.860100    4.453550   -1.012100
     36          1           0        2.018980    1.120300    1.027190
     37          1           0        1.716750    5.643720   -0.982800
     38          1           0       -0.098580    2.295540    1.055070
     39          1           0       -0.514810    5.857110   -0.230070
     40          1           0       -2.664820    5.235550    0.305940
     41          1           0       -4.453550    3.860100    1.012100
     42          1           0       -1.120300    2.018980   -1.027190
     43          1           0       -5.643720    1.716750    0.982800
     44          1           0       -2.295540   -0.098580   -1.055070
     45          1           0       -5.857110   -0.514810    0.230070
     46          1           0       -5.235550   -2.664820   -0.305940
     47          1           0       -3.860100   -4.453550   -1.012100
     48          1           0       -2.018980   -1.120300    1.027190
     49          1           0       -1.716750   -5.643720   -0.982800
     50          1           0        0.098580   -2.295540    1.055070
     51          1           0        0.514810   -5.857110   -0.230070
     52          1           0        2.664820   -5.235550    0.305940
     53          1           0        4.453550   -3.860100    1.012100
     54          1           0        1.120300   -2.018980   -1.027190
     55          1           0        2.295540    0.098580   -1.055070
     56          1           0        5.643720   -1.716750    0.982800
     57          0           0        0.000000    0.000000    0.000000
     58          0           0        0.000000    0.000000    1.000000
     59          0           0        0.000000    0.000000   -1.000000
     60          0           0        1.858863    3.351842   -0.036223
     61          0           0        1.648579    2.941619   -0.923634
     62          0           0        2.069147    3.762064    0.851188
     63          0           0        3.508062    1.003738   -0.017567
     64          0           0       -3.508062   -1.003738   -0.017567
 ---------------------------------------------------------------------

 SCF Done:  E(RPBE1PBE) =  -1231.47295844     A.U. after   14 cycles

      1  C    Isotropic =    76.6884   Anisotropy =   178.2115

      2  C    Isotropic =    86.8473   Anisotropy =   113.4980

      3  C    Isotropic =    86.9345   Anisotropy =   113.6775

      4  C    Isotropic =    76.6920   Anisotropy =   178.4046

      5  C    Isotropic =    73.0296   Anisotropy =   123.9334

      6  C    Isotropic =    79.3763   Anisotropy =   190.4614

      7  C    Isotropic =    73.0099   Anisotropy =   124.1405

      8  C    Isotropic =    79.7578   Anisotropy =   189.5964

      9  C    Isotropic =    76.6884   Anisotropy =   178.2115

     10  C    Isotropic =    86.8473   Anisotropy =   113.4980

     11  C    Isotropic =    86.9345   Anisotropy =   113.6775

     12  C    Isotropic =    76.6920   Anisotropy =   178.4046

     13  C    Isotropic =    73.0296   Anisotropy =   123.9335

     14  C    Isotropic =    79.3762   Anisotropy =   190.4614

     15  C    Isotropic =    73.0099   Anisotropy =   124.1405

     16  C    Isotropic =    79.7578   Anisotropy =   189.5964

     17  C    Isotropic =    76.6884   Anisotropy =   178.2115

     18  C    Isotropic =    86.8473   Anisotropy =   113.4980

     19  C    Isotropic =    86.9345   Anisotropy =   113.6775

     20  C    Isotropic =    76.6921   Anisotropy =   178.4046

     21  C    Isotropic =    73.0296   Anisotropy =   123.9335

     22  C    Isotropic =    79.3762   Anisotropy =   190.4614

     23  C    Isotropic =    73.0099   Anisotropy =   124.1405

     24  C    Isotropic =    79.7578   Anisotropy =   189.5964

     25  C    Isotropic =    76.6884   Anisotropy =   178.2115

     26  C    Isotropic =    86.8473   Anisotropy =   113.4980

     27  C    Isotropic =    86.9345   Anisotropy =   113.6776

     28  C    Isotropic =    76.6921   Anisotropy =   178.4046

     29  C    Isotropic =    73.0296   Anisotropy =   123.9334

     30  C    Isotropic =    79.3763   Anisotropy =   190.4614

     31  C    Isotropic =    79.7578   Anisotropy =   189.5964

     32  C    Isotropic =    73.0099   Anisotropy =   124.1405

     33  H    Isotropic =    21.1129   Anisotropy =    15.3525

     34  H    Isotropic =    21.1396   Anisotropy =    15.2769

     35  H    Isotropic =    21.7690   Anisotropy =    11.4659

     36  H    Isotropic =    40.5536   Anisotropy =    43.3548

     37  H    Isotropic =    21.7329   Anisotropy =    11.5453

     38  H    Isotropic =    40.5291   Anisotropy =    43.2454

     39  H    Isotropic =    21.1129   Anisotropy =    15.3525

     40  H    Isotropic =    21.1396   Anisotropy =    15.2769

     41  H    Isotropic =    21.7690   Anisotropy =    11.4659

     42  H    Isotropic =    40.5536   Anisotropy =    43.3548

     43  H    Isotropic =    21.7329   Anisotropy =    11.5453

     44  H    Isotropic =    40.5291   Anisotropy =    43.2455

     45  H    Isotropic =    21.1129   Anisotropy =    15.3525

     46  H    Isotropic =    21.1396   Anisotropy =    15.2769

     47  H    Isotropic =    21.7690   Anisotropy =    11.4659

     48  H    Isotropic =    40.5536   Anisotropy =    43.3548

     49  H    Isotropic =    21.7329   Anisotropy =    11.5453

     50  H    Isotropic =    40.5291   Anisotropy =    43.2455

     51  H    Isotropic =    21.1129   Anisotropy =    15.3525

     52  H    Isotropic =    21.1396   Anisotropy =    15.2769

     53  H    Isotropic =    21.7690   Anisotropy =    11.4659

     54  H    Isotropic =    40.5536   Anisotropy =    43.3548

     55  H    Isotropic =    40.5291   Anisotropy =    43.2455

     56  H    Isotropic =    21.7329   Anisotropy =    11.5453

     57  Bq   Isotropic =    15.1148   Anisotropy =    35.3072

     58  Bq   Isotropic =    13.8078   Anisotropy =    33.9960

     59  Bq   Isotropic =    13.8078   Anisotropy =    33.9960

     60  Bq   Isotropic =     9.6436   Anisotropy =    12.2819

     61  Bq   Isotropic =    15.4340   Anisotropy =    36.4567

     62  Bq   Isotropic =     7.2253   Anisotropy =    24.4422

     63  Bq   Isotropic =    22.8766   Anisotropy =    45.1325

     64  Bq   Isotropic =    22.8766   Anisotropy =    45.1326

 Alpha  occ. eigenvalues --  -10.02605 -10.02605 -10.02605 -10.02605 -10.02554
 Alpha  occ. eigenvalues --  -10.02554 -10.02554 -10.02554 -10.02353 -10.02351
 Alpha  occ. eigenvalues --  -10.02351 -10.02350 -10.02341 -10.02340 -10.02340
 Alpha  occ. eigenvalues --  -10.02339 -10.01939 -10.01937 -10.01937 -10.01935
 Alpha  occ. eigenvalues --  -10.01891 -10.01890 -10.01890 -10.01889 -10.01703
 Alpha  occ. eigenvalues --  -10.01703 -10.01703 -10.01700 -10.01648 -10.01645
 Alpha  occ. eigenvalues --  -10.01645 -10.01644  -0.66525  -0.66060  -0.66060
 Alpha  occ. eigenvalues --   -0.65413  -0.61355  -0.59725  -0.59725  -0.56535
 Alpha  occ. eigenvalues --   -0.56096  -0.54795  -0.54474  -0.54474  -0.54140
 Alpha  occ. eigenvalues --   -0.52110  -0.52110  -0.48257  -0.46217  -0.42246
 Alpha  occ. eigenvalues --   -0.42246  -0.41165  -0.40185  -0.40185  -0.39422
 Alpha  occ. eigenvalues --   -0.38937  -0.35456  -0.35250  -0.35250  -0.34948
 Alpha  occ. eigenvalues --   -0.32123  -0.29518  -0.29518  -0.29145  -0.27400
 Alpha  occ. eigenvalues --   -0.27185  -0.27185  -0.25675  -0.24328  -0.24328
 Alpha  occ. eigenvalues --   -0.23508  -0.23400  -0.22213  -0.21824  -0.21701
 Alpha  occ. eigenvalues --   -0.21528  -0.21528  -0.21259  -0.21259  -0.21205
 Alpha  occ. eigenvalues --   -0.19412  -0.18001  -0.18001  -0.17961  -0.17551
 Alpha  occ. eigenvalues --   -0.17551  -0.17318  -0.16536  -0.15426  -0.14391
 Alpha  occ. eigenvalues --   -0.14391  -0.13190  -0.12861  -0.12558  -0.12558
 Alpha  occ. eigenvalues --   -0.12527  -0.12404  -0.10615  -0.10615  -0.06891
 Alpha  occ. eigenvalues --   -0.06091  -0.06018  -0.05460  -0.05460  -0.04731
 Alpha  occ. eigenvalues --   -0.00833  -0.00833   0.03967   0.08787
 Alpha virt. eigenvalues --    0.15780   0.15780   0.20210   0.21447   0.21447
 Alpha virt. eigenvalues --    0.22489   0.22610   0.23587   0.25635   0.26254
 Alpha virt. eigenvalues --    0.26254   0.27355   0.27633   0.28519   0.28875

 Mulliken charges:
               1
     1  C    0.004763
     2  C   -0.060803
     3  C   -0.060017
     4  C    0.005606
     5  C   -0.050860
     6  C   -0.056126
     7  C   -0.050609
     8  C   -0.056152
     9  C    0.004763
    10  C   -0.060803
    11  C   -0.060017
    12  C    0.005606
    13  C   -0.050860
    14  C   -0.056126
    15  C   -0.050609
    16  C   -0.056152
    17  C    0.004763
    18  C   -0.060803
    19  C   -0.060017
    20  C    0.005606
    21  C   -0.050860
    22  C   -0.056126
    23  C   -0.050609
    24  C   -0.056152
    25  C    0.004763
    26  C   -0.060803
    27  C   -0.060017
    28  C    0.005606
    29  C   -0.050860
    30  C   -0.056126
    31  C   -0.056152
    32  C   -0.050609
    33  H   -0.049489
    34  H   -0.049924
    35  H   -0.053335
    36  H    0.015540
    37  H   -0.053392
    38  H    0.014798
    39  H   -0.049489
    40  H   -0.049924
    41  H   -0.053335
    42  H    0.015540
    43  H   -0.053392
    44  H    0.014798
    45  H   -0.049489
    46  H   -0.049923
    47  H   -0.053335
    48  H    0.015540
    49  H   -0.053392
    50  H    0.014798
    51  H   -0.049489
    52  H   -0.049923
    53  H   -0.053335
    54  H    0.015540
    55  H    0.014798
    56  H   -0.053392
    57  Bq   0.000000
    58  Bq   0.000000
    59  Bq   0.000000
    60  Bq   0.000000
    61  Bq   0.000000
    62  Bq   0.000000
    63  Bq   0.000000
    64  Bq   0.000000
 Sum of Mulliken charges =  -2.00000

 Dipole moment (field-independent basis, Debye):
    X=              0.0000    Y=              0.0000    Z=             -0.0000  Tot=              0.0000
 Quadrupole moment (field-independent basis, Debye-Ang):
   XX=           -296.9498   YY=           -296.9498   ZZ=           -206.7080
   XY=              0.0000   XZ=             -0.0000   YZ=              0.0000

 Normal termination of Gaussian 09 at Mon Feb 15 17:51:34 2021.
