 Q-Chem 4.2, Q-Chem, Inc., Pleasanton, CA (2014).
 Q-Chem 4.2.0 for Intel X86 EM64T Linux

User input:
--------------------------------------------------------------
$molecule
  read coord.qchem
$end

$rem
jobtype         sp
method          adc(2)
ee_singlets     [1,2,1,0]
ee_triplets	[1,2,0,1]
adc_nguess_singles 3
adc_prop_es     true
adc_print       3
adc_davidson_conv       5
adc_davidson_maxsubspace 50
mem_total	 64000
mem_static      1000
cc_symmetry     true
basis           cc-pVDZ
n_frozen_core   fc
adc_state_analysis true
make_cube_files false
molden_format   true
nto_pairs       5
$end

--------------------------------------------------------------

             Standard Nuclear Orientation (Angstroms)
    I     Atom           X                Y                Z
 ----------------------------------------------------------------
    1      N       0.0000000000    -0.0000000000     1.1173846630
    2      H       0.0000000000    -0.0000000000     2.1213606630
    3      C       1.1220101597    -0.0000000000     0.3346397662
    4      H       2.1055641487    -0.0000000000     0.7689841995
    5      C      -1.1220101597     0.0000000000     0.3346397662
    6      H      -2.1055641487     0.0000000000     0.7689841995
    7      C      -0.7079759881    -0.0000000000    -0.9842813588
    8      H      -1.3567421068     0.0000000000    -1.8426612957
    9      C       0.7079759881     0.0000000000    -0.9842813588
   10      H       1.3567421068     0.0000000000    -1.8426612957
 ----------------------------------------------------------------

    9    -208.8281396798      5.14E-06 Convergence criterion met
 Total energy in the final basis set = -208.8281396798
  Excited state 1 (triplet, A1): [converged]
  Term symbol:  1 (3) A1                                    R^2 =  9.06605e-06
  Excitation energy:                                               5.802372 eV
  Excited state 2 (singlet, A1): [converged]
  Term symbol:  2 (1) A1                                    R^2 =  8.92432e-06
  Excitation energy:                                               6.794092 eV
  Excited state 3 (triplet, A2): [converged]
  Term symbol:  1 (3) A2                                    R^2 =  1.94105e-07
  Excitation energy:                                               6.801383 eV
  Excited state 4 (singlet, A2): [converged]
  Term symbol:  1 (1) A2                                    R^2 =  3.33544e-07
  Excitation energy:                                               6.862666 eV
  Excited state 5 (singlet, B1): [converged]
  Term symbol:  1 (1) B1                                    R^2 =  6.37407e-06
  Excitation energy:                                               7.143153 eV
  Excited state 6 (triplet, B2): [converged]
  Term symbol:  1 (3) B2                                    R^2 =  7.04475e-06
  Excitation energy:                                               7.309118 eV
  Excited state 7 (triplet, A2): [converged]
  Term symbol:  2 (3) A2                                    R^2 =  4.66512e-06
  Excitation energy:                                               8.218087 eV
  Excited state 8 (singlet, A2): [converged]
  Term symbol:  2 (1) A2                                    R^2 =  7.60340e-06
  Excitation energy:                                               8.373683 eV

             Orbital Energies (a.u.) and Symmetries
 --------------------------------------------------------------

 Alpha MOs, Restricted
 -- Occupied --
-15.607 -11.252 -11.252 -11.209 -11.208  -1.289  -1.038  -0.973
  1 A1    1 B1    2 A1    3 A1    2 B1    4 A1    5 A1    3 B1
 -0.790  -0.763  -0.732  -0.587  -0.579  -0.563  -0.540  -0.523
  6 A1    4 B1    7 A1    8 A1    5 B1    1 B2    6 B1    9 A1
 -0.341  -0.291
  2 B2    1 A2

 Beta MOs, Restricted
 -- Occupied --
-15.607 -11.252 -11.252 -11.209 -11.208  -1.289  -1.038  -0.973
  1 A1    1 B1    2 A1    3 A1    2 B1    4 A1    5 A1    3 B1
 -0.790  -0.763  -0.732  -0.587  -0.579  -0.563  -0.540  -0.523
  6 A1    4 B1    7 A1    8 A1    5 B1    1 B2    6 B1    9 A1
 -0.341  -0.291
  2 B2    1 A2

          Ground-State Mulliken Net Atomic Charges

     Atom                 Charge (a.u.)
  ----------------------------------------
      1 N                    -0.215704
      2 H                     0.117084
      3 C                     0.089985
      4 H                     0.034093
      5 C                     0.089985
      6 H                     0.034093
      7 C                    -0.086458
      8 H                     0.011690
      9 C                    -0.086458
     10 H                     0.011690
  ----------------------------------------
  Sum of atomic charges =    -0.000000

                    Cartesian Multipole Moments
 -----------------------------------------------------------------
    Charge (ESU x 10^10)
                -0.0000
    Dipole Moment (Debye)
         X       0.0000      Y       0.0000      Z       1.9919
       Tot       1.9919
    Quadrupole Moments (Debye-Ang)
        XX     -26.5768     XY       0.0000     YY     -34.1433
        XZ      -0.0000     YZ       0.0000     ZZ     -23.5655

 Total job time:  90.49s(wall), 165.68s(cpu)
        *  Thank you very much for using Q-Chem.  Have a nice day.  *
