 Q-Chem 4.2, Q-Chem, Inc., Pleasanton, CA (2014).
 Q-Chem 4.2.0 for Intel X86 EM64T Linux

User input:
--------------------------------------------------------------
$molecule
 read coord.qchem
$end

$rem
jobtyp		sp
exchange	omegaB97
ecp		lanl2dz
basis		gen
mem_total	 64000
mem_static	1500
cis_n_roots	6
cis_singlets	true
cis_triplets	false
rpa		true
cis_ampl_anal	true
nto_pairs	3
cis_ampl_print  1
$end

$basis
   Ir
   lanl2dz
****
   C
   6-31G*
****
   N
   6-31G*
****
   H
   6-31G*
$end
--------------------------------------------------------------

             Standard Nuclear Orientation (Angstroms)
    I     Atom           X                Y                Z
 ----------------------------------------------------------------
    1      Ir     -0.0000004232     0.0000000051    -0.0210067683
    2      N      -0.9707419154    -1.5162385384     1.1004330703
    3      N       1.7984718046    -0.0825675371     1.1004335365
    4      C       0.5004741496     1.5913383386    -1.1012966867
    5      C      -1.6283810760    -0.3622448495    -1.1012970434
    6      C      -2.0824114043    -1.9292059357     0.5781128829
    7      C      -2.4826022069    -1.3246650391    -0.6441771861
    8      N      -0.8277317288     1.5988060975     1.1004330883
    9      C       1.1279062056    -1.2290934805    -1.1012965748
   10      C      -0.6295384283     2.7680232315     0.5781131195
   11      C       0.0941122870     2.8123268449    -0.6441767580
   12      C       2.7119482584    -0.8388172771     0.5781136928
   13      C       2.3884989661    -1.4876619138    -0.6441763607
   14      H      -1.8769715889     0.1300181146    -2.0424970865
   15      H      -3.3931097751    -1.6322965673    -1.1468373397
   16      H      -2.6707034301    -2.7081779337     1.0636927848
   17      H      -1.0099930187     3.6669894846     1.0636930532
   18      H       0.2829463015     3.7546695485    -1.1468367280
   19      H       1.0510852878     1.5604924864    -2.0424965934
   20      H       3.1101627759    -2.1223729728    -1.1468362372
   21      H       0.8258860586    -1.6905105981    -2.0424966250
   22      H       3.6807046272    -0.9588116485     1.0636938571
   23      H      -0.6907700460    -1.9574825231     1.9659431187
   24      H      -1.3498398088     1.5769679016     1.9659429999
   25      H       2.0406075755     0.3805146487     1.9659435766
 ----------------------------------------------------------------

   21    -618.9384657963      5.56E-09 Convergence criterion met
 Total energy in the final basis set = -618.9384657963

             TDDFT Excitation Energies
 ---------------------------------------------------

 Excited state   1: excitation energy (eV) =    3.9478
    Total energy for state   1:   -618.793385619103
    Multiplicity: Singlet
    Trans. Mom.:  0.0037 X  -0.0025 Y  -0.5634 Z
    Strength   :  0.0307
    X: D( 36) --> V(  7) amplitude = -0.0165
    X: D( 37) --> V(  8) amplitude =  0.0164
    X: D( 41) --> V(  2) amplitude = -0.0195
    X: D( 41) --> V(  8) amplitude =  0.0163
    X: D( 42) --> V(  3) amplitude =  0.0195
    X: D( 42) --> V(  7) amplitude =  0.0163
    X: D( 43) --> V(  1) amplitude =  0.0380
    X: D( 44) --> V(  3) amplitude = -0.0272
    X: D( 44) --> V(  8) amplitude =  0.0213
    X: D( 45) --> V(  2) amplitude = -0.0272
    X: D( 45) --> V(  7) amplitude =  0.0214
    X: D( 46) --> V(  1) amplitude =  0.1206
    Y: D( 46) --> V(  1) amplitude =  0.0155
    X: D( 46) --> V(  9) amplitude = -0.0163
    X: D( 46) --> V( 12) amplitude =  0.0218
    X: D( 46) --> V( 25) amplitude =  0.0151
    X: D( 47) --> V(  1) amplitude =  0.0263
    X: D( 48) --> V(  2) amplitude =  0.0198
    X: D( 48) --> V(  3) amplitude =  0.0922
    Y: D( 48) --> V(  3) amplitude = -0.0167
    X: D( 48) --> V(  6) amplitude = -0.0143
    X: D( 48) --> V( 11) amplitude = -0.0159
    X: D( 49) --> V(  2) amplitude = -0.0933
    Y: D( 49) --> V(  2) amplitude =  0.0169
    X: D( 49) --> V(  3) amplitude =  0.0197
    X: D( 49) --> V(  5) amplitude = -0.0144
    X: D( 49) --> V( 10) amplitude =  0.0160
    X: D( 50) --> V(  2) amplitude =  0.2333
    Y: D( 50) --> V(  2) amplitude = -0.0163
    X: D( 50) --> V(  3) amplitude = -0.0965
    X: D( 50) --> V(  5) amplitude =  0.0315
    X: D( 50) --> V(  6) amplitude =  0.0175
    X: D( 50) --> V(  7) amplitude = -0.0155
    X: D( 51) --> V(  2) amplitude =  0.0980
    X: D( 51) --> V(  3) amplitude =  0.2311
    Y: D( 51) --> V(  3) amplitude = -0.0161
    X: D( 51) --> V(  5) amplitude =  0.0177
    X: D( 51) --> V(  6) amplitude = -0.0311
    X: D( 51) --> V(  8) amplitude = -0.0153
    X: D( 52) --> V(  1) amplitude =  0.9041
    Y: D( 52) --> V(  1) amplitude = -0.0229
    X: D( 52) --> V(  4) amplitude = -0.0890
    X: D( 52) --> V( 12) amplitude =  0.0236
    X: D( 52) --> V( 25) amplitude =  0.0257

 Excited state   2: excitation energy (eV) =    3.9994
    Total energy for state   2:   -618.791492092759
    Multiplicity: Singlet
    Trans. Mom.: -0.1750 X   0.5728 Y  -0.0045 Z
    Strength   :  0.0352
    X: D( 32) --> V(  7) amplitude = -0.0142
    X: D( 35) --> V(  2) amplitude =  0.0189
    X: D( 36) --> V(  1) amplitude =  0.0223
    X: D( 43) --> V(  2) amplitude =  0.0365
    X: D( 44) --> V(  7) amplitude =  0.0218
    X: D( 45) --> V(  1) amplitude = -0.0241
    X: D( 45) --> V(  8) amplitude =  0.0218
    X: D( 46) --> V(  2) amplitude =  0.1213
    X: D( 46) --> V(  5) amplitude =  0.0216
    X: D( 46) --> V(  8) amplitude = -0.0370
    X: D( 46) --> V( 10) amplitude =  0.0276
    X: D( 47) --> V(  2) amplitude =  0.0501
    X: D( 47) --> V(  3) amplitude =  0.0319
    X: D( 47) --> V(  8) amplitude = -0.0335
    X: D( 48) --> V(  1) amplitude =  0.0163
    X: D( 48) --> V(  2) amplitude =  0.0303
    X: D( 48) --> V(  3) amplitude =  0.0641
    X: D( 49) --> V(  1) amplitude = -0.0487
    Y: D( 49) --> V(  1) amplitude =  0.0234
    X: D( 49) --> V(  2) amplitude =  0.0627
    X: D( 49) --> V(  3) amplitude = -0.0301
    X: D( 49) --> V( 12) amplitude =  0.0196
    X: D( 50) --> V(  1) amplitude =  0.2957
    X: D( 50) --> V(  2) amplitude = -0.1730
    Y: D( 50) --> V(  2) amplitude =  0.0149
    X: D( 50) --> V(  4) amplitude = -0.0329
    X: D( 50) --> V(  5) amplitude = -0.0243
    X: D( 51) --> V(  1) amplitude =  0.2859
    X: D( 51) --> V(  3) amplitude =  0.1772
    Y: D( 51) --> V(  3) amplitude = -0.0152
    X: D( 51) --> V(  4) amplitude = -0.0296
    X: D( 51) --> V(  6) amplitude = -0.0248
    X: D( 51) --> V( 12) amplitude =  0.0166
    X: D( 52) --> V(  2) amplitude =  0.8280
    Y: D( 52) --> V(  2) amplitude = -0.0242
    X: D( 52) --> V(  3) amplitude =  0.1241
    X: D( 52) --> V(  5) amplitude =  0.1064
    X: D( 52) --> V(  7) amplitude =  0.0291
    X: D( 52) --> V(  8) amplitude = -0.0790
    X: D( 52) --> V( 10) amplitude =  0.0280
    X: D( 52) --> V( 14) amplitude = -0.0272
    X: D( 52) --> V( 19) amplitude = -0.0145
    X: D( 52) --> V( 37) amplitude = -0.0169

 Excited state   3: excitation energy (eV) =    4.0000
    Total energy for state   3:   -618.791468859263
    Multiplicity: Singlet
    Trans. Mom.:  0.5720 X   0.1761 Y   0.0022 Z
    Strength   :  0.0351
    X: D( 35) --> V(  3) amplitude =  0.0189
    X: D( 37) --> V(  1) amplitude = -0.0223
    X: D( 43) --> V(  3) amplitude =  0.0365
    X: D( 44) --> V(  1) amplitude = -0.0241
    X: D( 44) --> V(  8) amplitude = -0.0219
    X: D( 45) --> V(  7) amplitude =  0.0217
    X: D( 46) --> V(  3) amplitude =  0.1216
    X: D( 46) --> V(  6) amplitude = -0.0216
    X: D( 46) --> V(  7) amplitude =  0.0370
    X: D( 46) --> V( 11) amplitude =  0.0276
    X: D( 47) --> V(  2) amplitude = -0.0321
    X: D( 47) --> V(  3) amplitude =  0.0501
    X: D( 47) --> V(  7) amplitude =  0.0336
    X: D( 48) --> V(  1) amplitude =  0.0485
    Y: D( 48) --> V(  1) amplitude = -0.0232
    X: D( 48) --> V(  2) amplitude =  0.0634
    X: D( 48) --> V(  3) amplitude = -0.0306
    X: D( 48) --> V( 12) amplitude = -0.0197
    X: D( 49) --> V(  1) amplitude =  0.0166
    X: D( 49) --> V(  2) amplitude = -0.0298
    X: D( 49) --> V(  3) amplitude = -0.0635
    X: D( 50) --> V(  1) amplitude = -0.2854
    X: D( 50) --> V(  3) amplitude =  0.1764
    Y: D( 50) --> V(  3) amplitude = -0.0151
    X: D( 50) --> V(  4) amplitude =  0.0296
    X: D( 50) --> V(  6) amplitude = -0.0247
    X: D( 50) --> V( 12) amplitude = -0.0167
    X: D( 51) --> V(  1) amplitude =  0.2952
    X: D( 51) --> V(  2) amplitude =  0.1754
    Y: D( 51) --> V(  2) amplitude = -0.0149
    X: D( 51) --> V(  4) amplitude = -0.0329
    X: D( 51) --> V(  5) amplitude =  0.0244
    X: D( 52) --> V(  2) amplitude = -0.1238
    X: D( 52) --> V(  3) amplitude =  0.8280
    Y: D( 52) --> V(  3) amplitude = -0.0242
    X: D( 52) --> V(  6) amplitude = -0.1062
    X: D( 52) --> V(  7) amplitude =  0.0792
    X: D( 52) --> V(  8) amplitude =  0.0291
    X: D( 52) --> V( 11) amplitude =  0.0281
    X: D( 52) --> V( 13) amplitude = -0.0272
    X: D( 52) --> V( 18) amplitude = -0.0146
    X: D( 52) --> V( 38) amplitude =  0.0169

 Excited state   4: excitation energy (eV) =    4.4084
    Total energy for state   4:   -618.776459849967
    Multiplicity: Singlet
    Trans. Mom.:  0.4058 X   0.4541 Y   0.0033 Z
    Strength   :  0.0401
    X: D( 37) --> V(  1) amplitude = -0.0304
    X: D( 38) --> V(  1) amplitude =  0.0429
    X: D( 38) --> V(  2) amplitude =  0.0271
    X: D( 39) --> V(  3) amplitude =  0.0269
    X: D( 41) --> V(  2) amplitude =  0.0151
    X: D( 41) --> V(  3) amplitude =  0.0243
    X: D( 42) --> V(  1) amplitude = -0.0338
    X: D( 42) --> V(  2) amplitude = -0.0245
    X: D( 42) --> V(  3) amplitude =  0.0158
    X: D( 44) --> V(  1) amplitude =  0.0479
    X: D( 44) --> V(  2) amplitude =  0.0189
    X: D( 44) --> V(  8) amplitude = -0.0173
    X: D( 45) --> V(  1) amplitude =  0.0324
    X: D( 45) --> V(  3) amplitude =  0.0175
    X: D( 45) --> V(  7) amplitude =  0.0170
    X: D( 46) --> V(  2) amplitude = -0.0492
    X: D( 46) --> V(  3) amplitude = -0.2070
    X: D( 46) --> V(  5) amplitude = -0.0205
    X: D( 46) --> V(  6) amplitude =  0.0345
    X: D( 46) --> V(  7) amplitude = -0.0279
    X: D( 46) --> V( 11) amplitude = -0.0157
    X: D( 47) --> V(  2) amplitude = -0.0231
    X: D( 47) --> V(  7) amplitude =  0.0212
    X: D( 47) --> V( 11) amplitude =  0.0170
    X: D( 48) --> V(  1) amplitude = -0.1224
    X: D( 48) --> V(  3) amplitude =  0.0279
    X: D( 48) --> V(  4) amplitude =  0.0192
    X: D( 48) --> V(  9) amplitude =  0.0162
    X: D( 48) --> V( 12) amplitude = -0.0250
    X: D( 49) --> V(  1) amplitude =  0.0837
    X: D( 49) --> V(  2) amplitude =  0.0263
    X: D( 50) --> V(  1) amplitude = -0.1966
    X: D( 50) --> V(  2) amplitude = -0.0312
    X: D( 50) --> V(  3) amplitude =  0.2637
    X: D( 50) --> V(  4) amplitude =  0.0215
    X: D( 50) --> V(  6) amplitude = -0.0345
    X: D( 50) --> V(  8) amplitude = -0.0210
    X: D( 50) --> V(  9) amplitude =  0.0162
    X: D( 51) --> V(  1) amplitude =  0.7251
    X: D( 51) --> V(  2) amplitude =  0.2633
    X: D( 51) --> V(  3) amplitude =  0.0176
    X: D( 51) --> V(  4) amplitude = -0.0730
    X: D( 51) --> V(  5) amplitude =  0.0339
    X: D( 51) --> V(  7) amplitude = -0.0222
    X: D( 51) --> V( 12) amplitude =  0.0382
    X: D( 51) --> V( 25) amplitude =  0.0154
    X: D( 52) --> V(  2) amplitude = -0.1127
    X: D( 52) --> V(  3) amplitude = -0.4079
    X: D( 52) --> V(  5) amplitude = -0.0247
    X: D( 52) --> V(  6) amplitude =  0.0332
    X: D( 52) --> V(  7) amplitude = -0.0837
    X: D( 52) --> V(  8) amplitude = -0.0200
    X: D( 52) --> V( 11) amplitude = -0.0578
    X: D( 52) --> V( 13) amplitude =  0.0154

 Excited state   5: excitation energy (eV) =    4.4097
    Total energy for state   5:   -618.776412735161
    Multiplicity: Singlet
    Trans. Mom.: -0.4550 X   0.4095 Y   0.0029 Z
    Strength   :  0.0405
    X: D( 36) --> V(  1) amplitude =  0.0304
    X: D( 38) --> V(  3) amplitude =  0.0263
    X: D( 39) --> V(  1) amplitude =  0.0430
    X: D( 39) --> V(  2) amplitude = -0.0276
    X: D( 41) --> V(  1) amplitude =  0.0337
    X: D( 41) --> V(  2) amplitude = -0.0245
    X: D( 41) --> V(  3) amplitude =  0.0154
    X: D( 42) --> V(  2) amplitude = -0.0156
    X: D( 42) --> V(  3) amplitude = -0.0239
    X: D( 44) --> V(  1) amplitude = -0.0324
    X: D( 44) --> V(  3) amplitude =  0.0178
    X: D( 44) --> V(  7) amplitude =  0.0170
    X: D( 45) --> V(  1) amplitude =  0.0478
    X: D( 45) --> V(  2) amplitude = -0.0187
    X: D( 45) --> V(  8) amplitude =  0.0175
    X: D( 46) --> V(  2) amplitude = -0.2071
    X: D( 46) --> V(  3) amplitude =  0.0491
    X: D( 46) --> V(  5) amplitude = -0.0346
    X: D( 46) --> V(  6) amplitude = -0.0205
    X: D( 46) --> V(  8) amplitude =  0.0278
    X: D( 46) --> V( 10) amplitude = -0.0157
    X: D( 47) --> V(  3) amplitude =  0.0230
    X: D( 47) --> V(  8) amplitude = -0.0212
    X: D( 47) --> V( 10) amplitude =  0.0170
    X: D( 48) --> V(  1) amplitude =  0.0836
    X: D( 48) --> V(  2) amplitude = -0.0281
    X: D( 49) --> V(  1) amplitude =  0.1221
    X: D( 49) --> V(  3) amplitude =  0.0259
    X: D( 49) --> V(  4) amplitude = -0.0191
    X: D( 49) --> V(  9) amplitude = -0.0162
    X: D( 49) --> V( 12) amplitude =  0.0248
    X: D( 50) --> V(  1) amplitude =  0.7252
    X: D( 50) --> V(  2) amplitude = -0.2707
    X: D( 50) --> V(  3) amplitude = -0.0230
    X: D( 50) --> V(  4) amplitude = -0.0728
    X: D( 50) --> V(  5) amplitude = -0.0352
    X: D( 50) --> V(  7) amplitude =  0.0218
    X: D( 50) --> V( 12) amplitude =  0.0380
    X: D( 50) --> V( 25) amplitude =  0.0153
    X: D( 51) --> V(  1) amplitude =  0.1959
    X: D( 51) --> V(  2) amplitude = -0.0241
    X: D( 51) --> V(  3) amplitude =  0.2564
    X: D( 51) --> V(  4) amplitude = -0.0214
    X: D( 51) --> V(  6) amplitude = -0.0335
    X: D( 51) --> V(  8) amplitude = -0.0217
    X: D( 51) --> V(  9) amplitude = -0.0162
    X: D( 52) --> V(  2) amplitude = -0.4079
    X: D( 52) --> V(  3) amplitude =  0.1129
    X: D( 52) --> V(  5) amplitude = -0.0332
    X: D( 52) --> V(  6) amplitude = -0.0248
    X: D( 52) --> V(  7) amplitude = -0.0203
    X: D( 52) --> V(  8) amplitude =  0.0832
    X: D( 52) --> V( 10) amplitude = -0.0578
    X: D( 52) --> V( 14) amplitude =  0.0153

 Excited state   6: excitation energy (eV) =    4.4256
    Total energy for state   6:   -618.775829658211
    Multiplicity: Singlet
    Trans. Mom.: -0.0006 X   0.0097 Y  -0.2772 Z
    Strength   :  0.0083
    X: D( 36) --> V(  2) amplitude =  0.0223
    X: D( 37) --> V(  3) amplitude = -0.0223
    X: D( 38) --> V(  3) amplitude =  0.0546
    X: D( 39) --> V(  2) amplitude =  0.0541
    X: D( 41) --> V(  2) amplitude =  0.0244
    X: D( 41) --> V(  8) amplitude =  0.0146
    X: D( 42) --> V(  3) amplitude = -0.0246
    X: D( 42) --> V(  7) amplitude =  0.0147
    X: D( 43) --> V(  1) amplitude =  0.0289
    X: D( 44) --> V(  2) amplitude = -0.0562
    X: D( 44) --> V(  3) amplitude =  0.0404
    X: D( 44) --> V(  7) amplitude =  0.0150
    X: D( 44) --> V(  8) amplitude =  0.0153
    X: D( 45) --> V(  2) amplitude =  0.0402
    X: D( 45) --> V(  3) amplitude =  0.0569
    X: D( 45) --> V(  7) amplitude =  0.0158
    X: D( 45) --> V(  8) amplitude = -0.0147
    X: D( 46) --> V(  1) amplitude = -0.1834
    X: D( 46) --> V(  4) amplitude =  0.0287
    X: D( 48) --> V(  2) amplitude =  0.1065
    X: D( 48) --> V(  3) amplitude = -0.0804
    X: D( 48) --> V(  5) amplitude =  0.0159
    X: D( 48) --> V(  6) amplitude =  0.0198
    X: D( 48) --> V(  7) amplitude = -0.0205
    X: D( 48) --> V( 11) amplitude = -0.0211
    X: D( 49) --> V(  2) amplitude =  0.0807
    X: D( 49) --> V(  3) amplitude =  0.1073
    X: D( 49) --> V(  5) amplitude =  0.0199
    X: D( 49) --> V(  6) amplitude = -0.0161
    X: D( 49) --> V(  8) amplitude = -0.0207
    X: D( 49) --> V( 10) amplitude =  0.0206
    X: D( 50) --> V(  2) amplitude =  0.6181
    X: D( 50) --> V(  3) amplitude = -0.0642
    X: D( 50) --> V(  5) amplitude =  0.0683
    X: D( 50) --> V(  6) amplitude =  0.0243
    X: D( 50) --> V(  8) amplitude = -0.0741
    X: D( 50) --> V( 10) amplitude =  0.0336
    X: D( 50) --> V( 14) amplitude = -0.0257
    X: D( 51) --> V(  2) amplitude =  0.0693
    X: D( 51) --> V(  3) amplitude =  0.6252
    X: D( 51) --> V(  5) amplitude =  0.0250
    X: D( 51) --> V(  6) amplitude = -0.0690
    X: D( 51) --> V(  7) amplitude =  0.0740
    X: D( 51) --> V( 11) amplitude =  0.0339
    X: D( 51) --> V( 13) amplitude = -0.0258
    X: D( 52) --> V(  1) amplitude = -0.2994
    X: D( 52) --> V(  4) amplitude =  0.0282
    X: D( 52) --> V(  9) amplitude =  0.0250
    X: D( 52) --> V( 12) amplitude = -0.0485

 ---------------------------------------------------

  Excited state 1:   4.0482 eV (singlet)
  Excited state 2:   4.1024 eV (singlet)
  Excited state 3:   4.1029 eV (singlet)
  Excited state 4:   4.4514 eV (singlet)
  Excited state 5:   4.4517 eV (singlet)
  Excited state 6:   4.4636 eV (singlet)
  Excited state 1:   3.9478 eV (singlet)
  Excited state 2:   3.9994 eV (singlet)
  Excited state 3:   4.0000 eV (singlet)
  Excited state 4:   4.4084 eV (singlet)
  Excited state 5:   4.4097 eV (singlet)
  Excited state 6:   4.4256 eV (singlet)

                    Orbital Energies (a.u.)
 --------------------------------------------------------------

 Alpha MOs
 -- Occupied --
-14.248 -14.248 -14.248 -10.182 -10.182 -10.182 -10.123 -10.123
-10.123 -10.100 -10.100 -10.100  -3.755  -2.183  -2.183  -2.175
 -1.058  -1.053  -1.053  -0.890  -0.889  -0.889  -0.772  -0.754
 -0.754  -0.661  -0.656  -0.656  -0.641  -0.641  -0.640  -0.559
 -0.538  -0.538  -0.513  -0.507  -0.507  -0.487  -0.487  -0.472
 -0.459  -0.459  -0.456  -0.381  -0.381  -0.371  -0.363  -0.347
 -0.347  -0.290  -0.290  -0.283

          Ground-State Mulliken Net Atomic Charges

     Atom                 Charge (a.u.)
  ----------------------------------------
      1 Ir                    0.829704
      2 N                    -0.621969
      3 N                    -0.622658
      4 C                    -0.370896
      5 C                    -0.370878
      6 C                     0.108784
      7 C                    -0.167342
      8 N                    -0.622712
      9 C                    -0.370775
     10 C                     0.108879
     11 C                    -0.167581
     12 C                     0.109108
     13 C                    -0.167558
     14 H                     0.140391
     15 H                     0.145040
     16 H                     0.163520
     17 H                     0.163503
     18 H                     0.145164
     19 H                     0.140465
     20 H                     0.145110
     21 H                     0.140359
     22 H                     0.163573
     23 H                     0.326170
     24 H                     0.326366
     25 H                     0.326233
  ----------------------------------------
  Sum of atomic charges =    -0.000000

                    Cartesian Multipole Moments
 -----------------------------------------------------------------
    Charge (ESU x 10^10)
                 0.0000
    Dipole Moment (Debye)
         X       0.0013      Y       0.0017      Z       3.9639
       Tot       3.9639
    Quadrupole Moments (Debye-Ang)
        XX     -86.7939     XY       0.0016     YY     -86.7911
        XZ      -0.0016     YZ      -0.0012     ZZ     -84.2915

 Total job time:  1434.91s(wall), 1664.99s(cpu)
        *  Thank you very much for using Q-Chem.  Have a nice day.  *
