 Gaussian 09, Revision D.01,
 Gaussian 09:  AS64L-G09RevD.01 24-Apr-2013

 ---------------------------------------------------------------
 #p PBEPBE/6-31G* td=(singlets, nstates=10) pop=full iop(9/40=3)
 ---------------------------------------------------------------

 ----
 FaFa
 ----
 Symbolic Z-matrix:
 Charge =  0 Multiplicity = 1

                         Standard orientation:
 ---------------------------------------------------------------------
 Center     Atomic      Atomic             Coordinates (Angstroms)
 Number     Number       Type             X           Y           Z
 ---------------------------------------------------------------------
      1          6           0        0.000000    1.750000    0.521500
      2          6           0        0.000000   -1.750000    0.521500
      3          8           0        0.000000    1.750000   -0.666120
      4          8           0        0.000000   -1.750000   -0.666120
      5          1           0       -0.924900    1.750000    1.099980
      6          1           0       -0.924900   -1.750000    1.099980
      7          1           0        0.924900    1.750000    1.099980
      8          1           0        0.924900   -1.750000    1.099980
 ---------------------------------------------------------------------

 SCF Done:  E(RPBE-PBE) =  -228.728358428     A.U. after   13 cycles

 Excitation energies and oscillator strengths:

 Excited State   1:      Singlet-A2     3.5834 eV  345.99 nm  f=0.0000  <S**2>=0.000
       5 -> 46         0.00188
       5 -> 54         0.00131
       6 -> 45         0.00188
       6 -> 53         0.00131
       7 -> 54        -0.00127
       8 -> 53        -0.00128
      11 -> 54        -0.00115
      12 -> 53        -0.00114
      15 -> 18        -0.14390
      15 -> 20         0.00101
      16 -> 17         0.69247
      16 -> 19         0.00182
       5 <- 46         0.00168
       5 <- 54         0.00119
       6 <- 45         0.00169
       6 <- 53         0.00120
       7 <- 54        -0.00114
       8 <- 53        -0.00115
      11 <- 54        -0.00102
      12 <- 53        -0.00101
      15 <- 18        -0.01001
      16 <- 17        -0.01138
 This state for optimization and/or second-order correction.
 Total Energy, E(TD-HF/TD-KS) =  -228.596670288
 Copying the excited state density for this state as the 1-particle RhoCI density.

 Excited State   2:      Singlet-B1     3.6348 eV  341.11 nm  f=0.0000  <S**2>=0.000
       5 -> 45         0.00179
       5 -> 53         0.00124
       6 -> 46         0.00179
       6 -> 54         0.00124
       7 -> 53        -0.00122
       8 -> 54        -0.00122
      11 -> 53        -0.00109
      12 -> 54        -0.00108
      15 -> 17         0.68555
      16 -> 18        -0.17386
       5 <- 45         0.00160
       5 <- 53         0.00113
       6 <- 46         0.00160
       6 <- 54         0.00113
       7 <- 53        -0.00109
       8 <- 54        -0.00110
      15 <- 17        -0.01072
      16 <- 18        -0.00969

 Excited State   3:      Singlet-B1     4.2420 eV  292.28 nm  f=0.0000  <S**2>=0.000
       5 -> 45         0.00296
       5 -> 53         0.00200
       6 -> 46         0.00296
       6 -> 54         0.00201
       7 -> 53        -0.00203
       8 -> 54        -0.00204
      11 -> 53        -0.00178
      12 -> 54        -0.00178
      15 -> 17         0.17433
      15 -> 38        -0.00104
      16 -> 18         0.68562
      16 -> 20        -0.00148
       5 <- 45         0.00260
       5 <- 53         0.00179
       6 <- 46         0.00260
       6 <- 54         0.00180
       7 <- 53        -0.00178
       8 <- 54        -0.00179
      11 <- 53        -0.00155
      12 <- 54        -0.00155
      15 <- 17        -0.01614
      16 <- 18        -0.01469

 Excited State   4:      Singlet-A2     4.2843 eV  289.39 nm  f=0.0000  <S**2>=0.000
       5 -> 46         0.00281
       5 -> 54         0.00192
       6 -> 45         0.00282
       6 -> 53         0.00192
       7 -> 54        -0.00191
       8 -> 53        -0.00192
      10 -> 17        -0.00140
      11 -> 54        -0.00170
      12 -> 53        -0.00170
      15 -> 18         0.69251
      16 -> 17         0.14434
      16 -> 19         0.00151
      16 -> 38        -0.00114
       5 <- 46         0.00247
       5 <- 54         0.00172
       6 <- 45         0.00247
       6 <- 53         0.00172
       7 <- 54        -0.00168
       8 <- 53        -0.00169
      11 <- 54        -0.00148
      12 <- 53        -0.00148
      15 <- 18        -0.01360
      16 <- 17        -0.01521

 Excited State   5:      Singlet-B2     7.7933 eV  159.09 nm  f=0.0113  <S**2>=0.000
       5 -> 24         0.00358
       5 -> 30        -0.00261
       5 -> 44        -0.00112
       6 -> 22         0.00366
       6 -> 28        -0.00127
       6 -> 31         0.00233
       6 -> 43        -0.00118
       7 -> 20        -0.00262
       7 -> 24        -0.00246
       7 -> 36        -0.00112
       8 -> 19        -0.00286
       8 -> 22        -0.00283
       8 -> 34         0.00129
       9 -> 23        -0.00419
       9 -> 42         0.00164
      10 -> 21        -0.00474
      10 -> 41         0.00168
      11 -> 18        -0.02089
      11 -> 20        -0.00369
      11 -> 24         0.00556
      11 -> 30        -0.00414
      11 -> 32        -0.00235
      11 -> 36        -0.00423
      11 -> 40        -0.00103
      12 -> 17         0.00690
      12 -> 19        -0.00427
      12 -> 22         0.00561
      12 -> 28        -0.00132
      12 -> 31         0.00505
      12 -> 34         0.00402
      12 -> 37        -0.00167
      13 -> 18        -0.40211
      13 -> 26         0.00117
      13 -> 40        -0.00356
      14 -> 17         0.57927
      14 -> 19         0.00133
      14 -> 22        -0.00276
      14 -> 25         0.00121
      14 -> 34         0.00135
      14 -> 38        -0.00457
      15 -> 23        -0.02983
      15 -> 29        -0.00531
      15 -> 35         0.00248
      15 -> 42         0.00285
      15 -> 52         0.00103
      16 -> 21        -0.03916
      16 -> 27        -0.00575
      16 -> 33         0.00235
      16 -> 41         0.00323
      16 -> 51         0.00108
       5 <- 24         0.00220
       5 <- 30        -0.00182
       6 <- 22         0.00220
       6 <- 31         0.00163
       7 <- 20        -0.00105
       7 <- 24        -0.00116
       8 <- 19        -0.00110
       8 <- 22        -0.00126
       9 <- 23        -0.00154
       9 <- 42         0.00111
      10 <- 21        -0.00167
      10 <- 41         0.00113
      11 <- 18        -0.00139
      11 <- 24         0.00200
      11 <- 30        -0.00234
      11 <- 32        -0.00140
      11 <- 36        -0.00259
      12 <- 19        -0.00101
      12 <- 22         0.00182
      12 <- 31         0.00287
      12 <- 34         0.00244
      12 <- 37        -0.00104
      13 <- 18        -0.01376
      13 <- 40        -0.00230
      14 <- 17        -0.01615
      14 <- 38        -0.00284
      15 <- 23        -0.00450
      15 <- 29        -0.00260
      15 <- 35         0.00139
      15 <- 42         0.00178
      16 <- 21        -0.00482
      16 <- 27        -0.00266
      16 <- 33         0.00129
      16 <- 41         0.00200

 Excited State   6:      Singlet-A1     7.8513 eV  157.91 nm  f=0.0006  <S**2>=0.000
       7 -> 17         0.00252
       7 -> 22        -0.00105
       8 -> 18         0.00258
      11 -> 17         0.01633
      11 -> 19        -0.00164
      11 -> 22         0.00181
      12 -> 18         0.01303
      12 -> 20        -0.00124
      12 -> 24         0.00183
      13 -> 17         0.52288
      13 -> 22        -0.00112
      13 -> 38        -0.00104
      14 -> 18        -0.47532
      15 -> 21        -0.01183
      15 -> 27        -0.00116
      16 -> 23        -0.00933
      16 -> 29        -0.00103
      13 <- 17        -0.00342
      14 <- 18        -0.00347
      15 <- 21        -0.00144
      16 <- 23        -0.00135

 Excited State   7:      Singlet-A2     7.9384 eV  156.18 nm  f=0.0000  <S**2>=0.000
       7 -> 23         0.00381
       7 -> 35        -0.00388
       8 -> 21         0.00340
       8 -> 33        -0.00414
       9 -> 20         0.01488
       9 -> 24         0.00256
       9 -> 26         0.00224
       9 -> 30         0.00111
       9 -> 32        -0.00363
       9 -> 36         0.00123
       9 -> 39        -0.00287
      10 -> 17        -0.00300
      10 -> 19         0.01497
      10 -> 22         0.00215
      10 -> 25        -0.00218
      10 -> 28         0.00332
      10 -> 31         0.00141
      10 -> 34        -0.00196
      10 -> 37        -0.00389
      11 -> 23        -0.00366
      11 -> 35         0.00173
      12 -> 21        -0.00354
      12 -> 33         0.00190
      15 -> 18        -0.00113
      15 -> 20        -0.17350
      15 -> 24         0.00535
      15 -> 26        -0.00287
      15 -> 30        -0.00134
      15 -> 32         0.00424
      15 -> 36        -0.00143
      15 -> 39         0.00237
      16 -> 17        -0.00177
      16 -> 19         0.68500
      16 -> 22         0.00972
      16 -> 25         0.00263
      16 -> 28        -0.00435
      16 -> 31        -0.00163
      16 -> 34         0.00225
      16 -> 37         0.00373
       7 <- 23         0.00168
       7 <- 35        -0.00252
       8 <- 21         0.00145
       8 <- 33        -0.00266
       9 <- 20         0.00445
       9 <- 26         0.00120
       9 <- 32        -0.00220
       9 <- 39        -0.00186
      10 <- 19         0.00418
      10 <- 25        -0.00106
      10 <- 28         0.00183
      10 <- 34        -0.00121
      10 <- 37        -0.00244
      11 <- 23        -0.00116
      11 <- 35         0.00105
      12 <- 21        -0.00107
      12 <- 33         0.00113
      15 <- 20        -0.00516
      15 <- 24         0.00104
      15 <- 26        -0.00124
      15 <- 32         0.00225
      15 <- 39         0.00139
      16 <- 19        -0.00501
      16 <- 22         0.00133
      16 <- 28        -0.00198
      16 <- 34         0.00123
      16 <- 37         0.00211

 Excited State   8:      Singlet-B1     8.0098 eV  154.79 nm  f=0.0466  <S**2>=0.000
       7 -> 21         0.00361
       7 -> 33        -0.00334
       8 -> 23         0.00387
       8 -> 35        -0.00321
       9 -> 17         0.00145
       9 -> 19         0.01608
       9 -> 22         0.00300
       9 -> 25        -0.00161
       9 -> 28         0.00292
       9 -> 31         0.00119
       9 -> 34        -0.00154
       9 -> 37        -0.00327
      10 -> 18         0.00153
      10 -> 20         0.01525
      10 -> 24         0.00321
      10 -> 26         0.00226
      10 -> 32        -0.00288
      10 -> 39        -0.00254
      11 -> 21        -0.00471
      11 -> 33         0.00165
      12 -> 23        -0.00463
      12 -> 35         0.00159
      15 -> 19         0.66167
      15 -> 22         0.00912
      15 -> 25         0.00194
      15 -> 28        -0.00378
      15 -> 31        -0.00173
      15 -> 34         0.00175
      15 -> 37         0.00300
      16 -> 20        -0.24802
      16 -> 24         0.00502
      16 -> 26        -0.00281
      16 -> 32         0.00384
      16 -> 36        -0.00115
      16 -> 39         0.00189
       7 <- 21         0.00154
       7 <- 33        -0.00214
       8 <- 23         0.00168
       8 <- 35        -0.00208
       9 <- 19         0.00446
       9 <- 22         0.00106
       9 <- 28         0.00161
       9 <- 37        -0.00205
      10 <- 20         0.00446
      10 <- 24         0.00123
      10 <- 26         0.00120
      10 <- 32        -0.00173
      10 <- 39        -0.00163
      11 <- 21        -0.00141
      12 <- 23        -0.00145
      15 <- 19        -0.00547
      15 <- 22         0.00123
      15 <- 28        -0.00171
      15 <- 37         0.00169
      16 <- 20        -0.00545
      16 <- 26        -0.00120
      16 <- 32         0.00202
      16 <- 39         0.00111

 Excited State   9:      Singlet-B2     8.4597 eV  146.56 nm  f=0.0002  <S**2>=0.000
       5 -> 18         0.00664
       6 -> 17         0.00710
       7 -> 18        -0.00687
       7 -> 48        -0.00155
       8 -> 17        -0.00842
       8 -> 47         0.00166
       9 -> 54        -0.00132
      10 -> 53        -0.00133
      11 -> 18        -0.26772
      11 -> 20        -0.00106
      11 -> 48        -0.00292
      11 -> 60        -0.00191
      12 -> 17         0.65197
      12 -> 25         0.00122
      12 -> 47         0.00296
      12 -> 59        -0.00198
      13 -> 18         0.05243
      13 -> 24        -0.00206
      13 -> 30         0.00187
      13 -> 36        -0.00133
      13 -> 39        -0.00111
      13 -> 50         0.00232
      14 -> 17         0.01875
      14 -> 22        -0.00253
      14 -> 31        -0.00175
      14 -> 34         0.00161
      14 -> 37        -0.00145
      14 -> 49         0.00239
      14 -> 55         0.00106
      15 -> 23        -0.00154
      15 -> 46        -0.00241
      15 -> 54        -0.00238
      16 -> 21        -0.00241
      16 -> 45        -0.00242
      16 -> 53        -0.00239
       5 <- 18         0.00327
       6 <- 17         0.00343
       7 <- 18        -0.00168
       7 <- 48        -0.00114
       8 <- 17        -0.00186
       8 <- 47         0.00122
       9 <- 54        -0.00101
      10 <- 53        -0.00102
      11 <- 18        -0.00690
      11 <- 48        -0.00208
      11 <- 60        -0.00154
      12 <- 17        -0.00721
      12 <- 47         0.00211
      12 <- 59        -0.00159
      13 <- 50         0.00169
      14 <- 17        -0.00129
      14 <- 49         0.00174
      15 <- 46        -0.00164
      15 <- 54        -0.00176
      16 <- 45        -0.00165
      16 <- 53        -0.00177

 Excited State  10:      Singlet-A1     8.4878 eV  146.07 nm  f=0.0000  <S**2>=0.000
       5 -> 17         0.00665
       6 -> 18         0.00624
       7 -> 17        -0.00726
       7 -> 19         0.00141
       7 -> 47         0.00154
       8 -> 18        -0.00639
       8 -> 20         0.00117
       8 -> 48        -0.00150
       9 -> 21         0.00158
       9 -> 53        -0.00124
      10 -> 23         0.00136
      10 -> 54        -0.00124
      11 -> 17         0.64016
      11 -> 25         0.00110
      11 -> 47         0.00279
      11 -> 59        -0.00183
      12 -> 18        -0.29574
      12 -> 20        -0.00116
      12 -> 48        -0.00272
      12 -> 60        -0.00179
      13 -> 17        -0.04064
      13 -> 31        -0.00183
      13 -> 37        -0.00118
      13 -> 49         0.00219
      14 -> 18        -0.03092
      14 -> 24        -0.00159
      14 -> 30         0.00196
      14 -> 36        -0.00132
      14 -> 39        -0.00111
      14 -> 50         0.00232
      15 -> 45        -0.00225
      15 -> 53        -0.00223
      16 -> 46        -0.00227
      16 -> 54        -0.00223
       5 <- 17         0.00321
       6 <- 18         0.00307
       7 <- 17        -0.00162
       7 <- 47         0.00113
       8 <- 18        -0.00153
       8 <- 48        -0.00110
      11 <- 17        -0.00674
      11 <- 47         0.00198
      11 <- 59        -0.00147
      12 <- 18        -0.00653
      12 <- 48        -0.00193
      12 <- 60        -0.00144
      13 <- 17         0.00185
      13 <- 49         0.00160
      14 <- 30         0.00102
      14 <- 50         0.00168
      15 <- 45        -0.00153
      15 <- 53        -0.00165
      16 <- 46        -0.00154
      16 <- 54        -0.00165

 The electronic state is 1-A1.
 Alpha  occ. eigenvalues --  -18.78963 -18.78963  -9.98762  -9.98761  -0.98006
 Alpha  occ. eigenvalues --   -0.97913  -0.57696  -0.57354  -0.44665  -0.44424
 Alpha  occ. eigenvalues --   -0.39184  -0.39051  -0.37120  -0.35728  -0.21588
 Alpha  occ. eigenvalues --   -0.21385
 Alpha virt. eigenvalues --   -0.08642  -0.06450   0.07365   0.09374   0.15293
 Alpha virt. eigenvalues --    0.17054   0.17223   0.21644   0.39801   0.51899
 Alpha virt. eigenvalues --    0.56508   0.56508   0.62129   0.63905   0.64759

 Mulliken charges:
               1
     1  C    0.034214
     2  C    0.034214
     3  O   -0.274103
     4  O   -0.274103
     5  H    0.119945
     6  H    0.119945
     7  H    0.119945
     8  H    0.119945
 Sum of Mulliken charges =   0.00000

 Dipole moment (field-independent basis, Debye):
    X=              0.0000    Y=              0.0000    Z=              3.7489  Tot=              3.7489
 Quadrupole moment (field-independent basis, Debye-Ang):
   XX=            -23.0798   YY=            -22.5304   ZZ=            -23.9482
   XY=              0.0000   XZ=              0.0000   YZ=              0.0000

 Normal termination of Gaussian 09 at Wed Nov 12 12:06:04 2014.
