 Gaussian 09, Revision E.01,
 Gaussian 09:  EM64M-G09RevE.01 30-Nov-2015

 -------------------------------
 # PBE1PBE/Def2SVP scf=tight nmr
 -------------------------------

 ------------
 ../qchem.out
 ------------
 Symbolic Z-matrix:
 Charge =  0 Multiplicity = 3

                          Input orientation:
 ---------------------------------------------------------------------
 Center     Atomic      Atomic             Coordinates (Angstroms)
 Number     Number       Type             X           Y           Z
 ---------------------------------------------------------------------
      1          6           0        3.987360   -0.568890    0.086030
      2          6           0        4.736140    0.646620    0.082700
      3          6           0        4.356660    1.956240   -0.160940
      4          6           0        3.078450    2.590880   -0.127300
      5          6           0        2.935890    3.891540   -0.688670
      6          6           0        1.935790    2.059570    0.540650
      7          6           0        1.735160    4.560350   -0.667290
      8          6           0        0.736240    2.726920    0.560500
      9          6           0        0.568890    3.987360   -0.086030
     10          6           0       -0.646620    4.736140   -0.082700
     11          6           0       -1.956240    4.356660    0.160940
     12          6           0       -2.590880    3.078450    0.127300
     13          6           0       -3.891540    2.935890    0.688670
     14          6           0       -2.059570    1.935790   -0.540650
     15          6           0       -4.560350    1.735160    0.667290
     16          6           0       -2.726920    0.736240   -0.560500
     17          6           0       -3.987360    0.568890    0.086030
     18          6           0       -4.736140   -0.646620    0.082700
     19          6           0       -4.356660   -1.956240   -0.160940
     20          6           0       -3.078450   -2.590880   -0.127300
     21          6           0       -2.935890   -3.891540   -0.688670
     22          6           0       -1.935790   -2.059570    0.540650
     23          6           0       -1.735160   -4.560350   -0.667290
     24          6           0       -0.736240   -2.726920    0.560500
     25          6           0       -0.568890   -3.987360   -0.086030
     26          6           0        0.646620   -4.736140   -0.082700
     27          6           0        1.956240   -4.356660    0.160940
     28          6           0        2.590880   -3.078450    0.127300
     29          6           0        3.891540   -2.935890    0.688670
     30          6           0        2.059570   -1.935790   -0.540650
     31          6           0        2.726920   -0.736240   -0.560500
     32          6           0        4.560350   -1.735160    0.667290
     33          1           0        5.811200    0.508870    0.259380
     34          1           0        5.189680    2.642290   -0.364240
     35          1           0        3.805970    4.357270   -1.162840
     36          1           0        2.030460    1.122270    1.094010
     37          1           0        1.660400    5.552420   -1.124610
     38          1           0       -0.096450    2.305360    1.128680
     39          1           0       -0.508870    5.811200   -0.259380
     40          1           0       -2.642290    5.189680    0.364240
     41          1           0       -4.357270    3.805970    1.162840
     42          1           0       -1.122270    2.030460   -1.094010
     43          1           0       -5.552420    1.660400    1.124610
     44          1           0       -2.305360   -0.096450   -1.128680
     45          1           0       -5.811200   -0.508870    0.259380
     46          1           0       -5.189680   -2.642290   -0.364240
     47          1           0       -3.805970   -4.357270   -1.162840
     48          1           0       -2.030460   -1.122270    1.094010
     49          1           0       -1.660400   -5.552420   -1.124610
     50          1           0        0.096450   -2.305360    1.128680
     51          1           0        0.508870   -5.811200   -0.259380
     52          1           0        2.642290   -5.189680    0.364240
     53          1           0        4.357270   -3.805970    1.162840
     54          1           0        1.122270   -2.030460   -1.094010
     55          1           0        2.305360    0.096450   -1.128680
     56          1           0        5.552420   -1.660400    1.124610
     57          0           0        0.000000    0.000000    0.000000
     58          0           0        0.000000    0.000000    1.000000
     59          0           0        0.000000    0.000000   -1.000000
     60          0           0        1.831737    3.302770   -0.078023
     61          0           0        1.594207    2.854253   -0.939657
     62          0           0        2.069266    3.751287    0.783610
     63          0           0        3.470220    0.991363   -0.023227
     64          0           0       -3.470220   -0.991363   -0.023227
 ---------------------------------------------------------------------

 SCF Done:  E(UPBE1PBE) =  -1231.41479594     A.U. after   15 cycles

      1  C    Isotropic =    61.1804   Anisotropy =   201.5182

      2  C    Isotropic =    67.8929   Anisotropy =   157.2756

      3  C    Isotropic =    67.6354   Anisotropy =   156.6863

      4  C    Isotropic =    61.1612   Anisotropy =   201.7666

      5  C    Isotropic =    67.4359   Anisotropy =   146.4338

      6  C    Isotropic =    77.1567   Anisotropy =   194.8011

      7  C    Isotropic =    67.4564   Anisotropy =   146.5473

      8  C    Isotropic =    77.3818   Anisotropy =   194.1150

      9  C    Isotropic =    61.1804   Anisotropy =   201.5182

     10  C    Isotropic =    67.8929   Anisotropy =   157.2756

     11  C    Isotropic =    67.6354   Anisotropy =   156.6863

     12  C    Isotropic =    61.1612   Anisotropy =   201.7666

     13  C    Isotropic =    67.4359   Anisotropy =   146.4338

     14  C    Isotropic =    77.1567   Anisotropy =   194.8012

     15  C    Isotropic =    67.4563   Anisotropy =   146.5473

     16  C    Isotropic =    77.3818   Anisotropy =   194.1150

     17  C    Isotropic =    61.1803   Anisotropy =   201.5182

     18  C    Isotropic =    67.8929   Anisotropy =   157.2756

     19  C    Isotropic =    67.6354   Anisotropy =   156.6863

     20  C    Isotropic =    61.1612   Anisotropy =   201.7666

     21  C    Isotropic =    67.4359   Anisotropy =   146.4338

     22  C    Isotropic =    77.1567   Anisotropy =   194.8012

     23  C    Isotropic =    67.4563   Anisotropy =   146.5473

     24  C    Isotropic =    77.3818   Anisotropy =   194.1150

     25  C    Isotropic =    61.1803   Anisotropy =   201.5182

     26  C    Isotropic =    67.8929   Anisotropy =   157.2756

     27  C    Isotropic =    67.6354   Anisotropy =   156.6863

     28  C    Isotropic =    61.1612   Anisotropy =   201.7666

     29  C    Isotropic =    67.4359   Anisotropy =   146.4338

     30  C    Isotropic =    77.1567   Anisotropy =   194.8012

     31  C    Isotropic =    77.3818   Anisotropy =   194.1150

     32  C    Isotropic =    67.4564   Anisotropy =   146.5473

     33  H    Isotropic =    20.1593   Anisotropy =    14.3024

     34  H    Isotropic =    20.1933   Anisotropy =    14.2329

     35  H    Isotropic =    21.3050   Anisotropy =    11.0131

     36  H    Isotropic =    38.7206   Anisotropy =    39.0746

     37  H    Isotropic =    21.2591   Anisotropy =    11.1307

     38  H    Isotropic =    38.7022   Anisotropy =    38.9869

     39  H    Isotropic =    20.1593   Anisotropy =    14.3024

     40  H    Isotropic =    20.1933   Anisotropy =    14.2329

     41  H    Isotropic =    21.3050   Anisotropy =    11.0131

     42  H    Isotropic =    38.7206   Anisotropy =    39.0746

     43  H    Isotropic =    21.2591   Anisotropy =    11.1307

     44  H    Isotropic =    38.7022   Anisotropy =    38.9869

     45  H    Isotropic =    20.1593   Anisotropy =    14.3024

     46  H    Isotropic =    20.1933   Anisotropy =    14.2329

     47  H    Isotropic =    21.3050   Anisotropy =    11.0131

     48  H    Isotropic =    38.7206   Anisotropy =    39.0746

     49  H    Isotropic =    21.2591   Anisotropy =    11.1307

     50  H    Isotropic =    38.7022   Anisotropy =    38.9869

     51  H    Isotropic =    20.1593   Anisotropy =    14.3024

     52  H    Isotropic =    20.1933   Anisotropy =    14.2329

     53  H    Isotropic =    21.3050   Anisotropy =    11.0131

     54  H    Isotropic =    38.7206   Anisotropy =    39.0746

     55  H    Isotropic =    38.7022   Anisotropy =    38.9869

     56  H    Isotropic =    21.2591   Anisotropy =    11.1307

     57  Bq   Isotropic =    14.5388   Anisotropy =    31.8704

     58  Bq   Isotropic =    13.2135   Anisotropy =    30.8347

     59  Bq   Isotropic =    13.2135   Anisotropy =    30.8347

     60  Bq   Isotropic =     9.3734   Anisotropy =    12.4548

     61  Bq   Isotropic =    16.0539   Anisotropy =    35.6658

     62  Bq   Isotropic =     7.6434   Anisotropy =    25.2957

     63  Bq   Isotropic =    20.1168   Anisotropy =    40.8261

     64  Bq   Isotropic =    20.1167   Anisotropy =    40.8260

 Alpha  occ. eigenvalues --  -10.25471 -10.25469 -10.25469 -10.25467 -10.25462
 Alpha  occ. eigenvalues --  -10.25461 -10.25461 -10.25459 -10.24939 -10.24936
 Alpha  occ. eigenvalues --  -10.24936 -10.24934 -10.24888 -10.24887 -10.24887
 Alpha  occ. eigenvalues --  -10.24886 -10.24440 -10.24440 -10.24440 -10.24440
 Alpha  occ. eigenvalues --  -10.24387 -10.24387 -10.24387 -10.24386 -10.24263
 Alpha  occ. eigenvalues --  -10.24263 -10.24263 -10.24261 -10.24208 -10.24205
 Alpha  occ. eigenvalues --  -10.24205 -10.24204  -0.89483  -0.88962  -0.88962
 Alpha  occ. eigenvalues --   -0.88184  -0.84659  -0.82859  -0.82859  -0.79453
 Alpha  occ. eigenvalues --   -0.79126  -0.77239  -0.76942  -0.76942  -0.76607
 Alpha  occ. eigenvalues --   -0.74930  -0.74930  -0.70958  -0.68950  -0.64904
 Alpha  occ. eigenvalues --   -0.64904  -0.63579  -0.62555  -0.62555  -0.61969
 Alpha  occ. eigenvalues --   -0.61358  -0.57595  -0.57399  -0.57399  -0.57151
 Alpha  occ. eigenvalues --   -0.54450  -0.52016  -0.52016  -0.51745  -0.49763
 Alpha  occ. eigenvalues --   -0.49627  -0.49627  -0.48313  -0.46358  -0.46358
 Alpha  occ. eigenvalues --   -0.45589  -0.45292  -0.44203  -0.43974  -0.43967
 Alpha  occ. eigenvalues --   -0.43856  -0.43836  -0.43836  -0.43637  -0.43637
 Alpha  occ. eigenvalues --   -0.42050  -0.40541  -0.40469  -0.40469  -0.39927
 Alpha  occ. eigenvalues --   -0.39894  -0.39894  -0.38812  -0.37529  -0.36786
 Alpha  occ. eigenvalues --   -0.36786  -0.35892  -0.35622  -0.35135  -0.35135
 Alpha  occ. eigenvalues --   -0.34989  -0.34907  -0.33430  -0.33430  -0.29777
 Alpha  occ. eigenvalues --   -0.28767  -0.28438  -0.27735  -0.27735  -0.27027
 Alpha  occ. eigenvalues --   -0.23691  -0.23691  -0.18898  -0.13958
 Alpha virt. eigenvalues --   -0.06982  -0.06982  -0.02291  -0.00479  -0.00479
 Alpha virt. eigenvalues --    0.00297   0.00699   0.00818   0.06321   0.06321
 Alpha virt. eigenvalues --    0.06675   0.07451   0.07451   0.07643   0.07702

  Beta  occ. eigenvalues --  -10.25329 -10.25326 -10.25326 -10.25324 -10.25320
  Beta  occ. eigenvalues --  -10.25319 -10.25319 -10.25317 -10.24760 -10.24757
  Beta  occ. eigenvalues --  -10.24757 -10.24755 -10.24708 -10.24707 -10.24707
  Beta  occ. eigenvalues --  -10.24707 -10.24384 -10.24384 -10.24384 -10.24384
  Beta  occ. eigenvalues --  -10.24331 -10.24330 -10.24330 -10.24330 -10.24233
  Beta  occ. eigenvalues --  -10.24232 -10.24232 -10.24230 -10.24178 -10.24174
  Beta  occ. eigenvalues --  -10.24174 -10.24173  -0.89122  -0.88612  -0.88612
  Beta  occ. eigenvalues --   -0.87872  -0.84094  -0.82333  -0.82333  -0.78970
  Beta  occ. eigenvalues --   -0.78586  -0.77054  -0.76756  -0.76756  -0.76425
  Beta  occ. eigenvalues --   -0.74431  -0.74431  -0.70463  -0.68491  -0.64506
  Beta  occ. eigenvalues --   -0.64506  -0.63429  -0.62374  -0.62374  -0.61785
  Beta  occ. eigenvalues --   -0.61034  -0.57193  -0.57175  -0.57175  -0.56975
  Beta  occ. eigenvalues --   -0.54308  -0.51813  -0.51813  -0.51580  -0.49544
  Beta  occ. eigenvalues --   -0.49427  -0.49427  -0.48124  -0.46200  -0.46200
  Beta  occ. eigenvalues --   -0.45451  -0.45122  -0.43986  -0.43888  -0.43781
  Beta  occ. eigenvalues --   -0.43730  -0.43706  -0.43706  -0.43428  -0.43428
  Beta  occ. eigenvalues --   -0.41776  -0.40105  -0.40105  -0.39684  -0.39291
  Beta  occ. eigenvalues --   -0.39273  -0.39273  -0.38581  -0.37285  -0.36582
  Beta  occ. eigenvalues --   -0.36582  -0.35394  -0.34961  -0.34707  -0.34707
  Beta  occ. eigenvalues --   -0.34674  -0.34233  -0.32173  -0.32173  -0.28297
  Beta  occ. eigenvalues --   -0.27881  -0.27194  -0.27194  -0.26922  -0.26454
  Beta  occ. eigenvalues --   -0.21403  -0.21403
  Beta virt. eigenvalues --   -0.14667  -0.09796  -0.04748  -0.04748  -0.01671
  Beta virt. eigenvalues --    0.00027   0.00027   0.01234   0.01969   0.02386
  Beta virt. eigenvalues --    0.06740   0.07500   0.07500   0.07745   0.07754

 Mulliken charges and spin densities:
               1          2
     1  C   -0.003345   0.092645
     2  C   -0.021300   0.116509
     3  C   -0.020770   0.114997
     4  C   -0.001880   0.092457
     5  C   -0.019972   0.031370
     6  C   -0.031284   0.017513
     7  C   -0.019340   0.031399
     8  C   -0.031544   0.016863
     9  C   -0.003345   0.092645
    10  C   -0.021300   0.116509
    11  C   -0.020770   0.114997
    12  C   -0.001880   0.092457
    13  C   -0.019972   0.031370
    14  C   -0.031284   0.017513
    15  C   -0.019340   0.031399
    16  C   -0.031544   0.016862
    17  C   -0.003345   0.092646
    18  C   -0.021300   0.116508
    19  C   -0.020770   0.114997
    20  C   -0.001880   0.092457
    21  C   -0.019972   0.031370
    22  C   -0.031284   0.017513
    23  C   -0.019340   0.031399
    24  C   -0.031544   0.016862
    25  C   -0.003345   0.092646
    26  C   -0.021300   0.116508
    27  C   -0.020770   0.114997
    28  C   -0.001880   0.092457
    29  C   -0.019972   0.031370
    30  C   -0.031284   0.017513
    31  C   -0.031544   0.016863
    32  C   -0.019340   0.031399
    33  H    0.024940  -0.003441
    34  H    0.024216  -0.003524
    35  H    0.012936  -0.001923
    36  H    0.037668  -0.001489
    37  H    0.012820  -0.001918
    38  H    0.036854  -0.001458
    39  H    0.024940  -0.003441
    40  H    0.024216  -0.003524
    41  H    0.012936  -0.001923
    42  H    0.037668  -0.001489
    43  H    0.012820  -0.001918
    44  H    0.036854  -0.001458
    45  H    0.024940  -0.003441
    46  H    0.024216  -0.003524
    47  H    0.012936  -0.001923
    48  H    0.037668  -0.001489
    49  H    0.012820  -0.001918
    50  H    0.036854  -0.001458
    51  H    0.024940  -0.003441
    52  H    0.024216  -0.003524
    53  H    0.012936  -0.001923
    54  H    0.037668  -0.001489
    55  H    0.036854  -0.001458
    56  H    0.012820  -0.001918
    57  Bq   0.000000   0.000000
    58  Bq   0.000000   0.000000
    59  Bq   0.000000   0.000000
    60  Bq   0.000000   0.000000
    61  Bq   0.000000   0.000000
    62  Bq   0.000000   0.000000
    63  Bq   0.000000   0.000000
    64  Bq   0.000000   0.000000
 Sum of Mulliken charges =  -0.00000   2.00000

 Dipole moment (field-independent basis, Debye):
    X=             -0.0000    Y=             -0.0000    Z=              0.0000  Tot=              0.0000
 Quadrupole moment (field-independent basis, Debye-Ang):
   XX=           -168.0722   YY=           -168.0722   ZZ=           -192.6310
   XY=             -0.0000   XZ=              0.0000   YZ=              0.0000

 Normal termination of Gaussian 09 at Mon Feb 15 18:00:30 2021.
