                         Program Version 4.0.1.2 - RELEASE -
|  1> !  sto-3g  bp86  nousesym
|  2>
|  3>
|  4> %output
|  5> Print[ P_Overlap ] 1
|  6> Print[ P_MOs ] 1
|  7> end
|  8>
|  9> %tddft
| 10>   tda false
| 11>   triplets true
| 12>   nroots 2
| 13> end
| 14>
| 15> * xyz 0 1
| 16> C          0.00000        1.05800       -0.00000
| 17> H          0.92500        1.63000       -0.00000
| 18> H         -0.92500        1.63000        0.00000
| 19> S          0.00000       -0.60100        0.00000
| 20> *
| 21>
| 22>                          ****END OF INPUT****

CARTESIAN COORDINATES (ANGSTROEM)
---------------------------------
  C      0.000000    1.058000   -0.000000
  H      0.925000    1.630000   -0.000000
  H     -0.925000    1.630000    0.000000
  S      0.000000   -0.601000    0.000000

 Total Charge           Charge          ....    0
 Multiplicity           Mult            ....    1
 Number of Electrons    NEL             ....   24
 Basis Dimension        Dim             ....   16

ORBITAL ENERGIES
----------------

  NO   OCC          E(Eh)            E(eV)
   0   2.0000     -86.923212     -2365.3008
   1   2.0000      -9.723767      -264.5971
   2   2.0000      -7.310249      -198.9220
   3   2.0000      -5.329966      -145.0357
   4   2.0000      -5.328030      -144.9831
   5   2.0000      -5.304018      -144.3297
   6   2.0000      -0.640456       -17.4277
   7   2.0000      -0.468536       -12.7495
   8   2.0000      -0.350941        -9.5496
   9   2.0000      -0.250427        -6.8145
  10   2.0000      -0.179888        -4.8950
  11   2.0000      -0.065900        -1.7932
  12   0.0000      -0.004191        -0.1141
  13   0.0000       0.293059         7.9746
  14   0.0000       0.409630        11.1466
  15   0.0000       0.438134        11.9222
------------------
MOLECULAR ORBITALS
------------------
                      0         1         2         3         4         5
                 -86.92321  -9.72377  -7.31025  -5.32997  -5.32803  -5.30402
                   2.00000   2.00000   2.00000   2.00000   2.00000   2.00000
                  --------  --------  --------  --------  --------  --------
  0C   1s        -0.000082  0.990564  0.001747 -0.001572 -0.000000  0.000000
  0C   2s         0.000686  0.042855 -0.013711  0.019187  0.000000 -0.000000
  0C   1pz       -0.000000 -0.000000  0.000000 -0.000000  0.005724  0.000000
  0C   1px        0.000000 -0.000000 -0.000000  0.000000 -0.000000 -0.006409
  0C   1py       -0.000590  0.000152  0.010650 -0.013754 -0.000000 -0.000000
  1H   1s         0.000010 -0.009560 -0.000172 -0.000072  0.000000  0.000863
  2H   1s         0.000010 -0.009560 -0.000172 -0.000072 -0.000000 -0.000863
  3S   1s         0.994029 -0.000105 -0.366460 -0.007021 -0.000000  0.000000
  3S   2s         0.017507  0.000107  1.043023  0.020216  0.000000 -0.000000
  3S   1pz        0.000000  0.000000  0.000000  0.000000 -0.982120 -0.000000
  3S   1px        0.000000  0.000000 -0.000000 -0.000000 -0.000000  0.982253
  3S   1py        0.000199  0.000900  0.015840 -0.979784 -0.000000 -0.000000
  3S   3s        -0.002711 -0.007039  0.065534 -0.009505 -0.000000  0.000000
  3S   2pz        0.000000 -0.000000  0.000000  0.000000 -0.062657 -0.000000
  3S   2px       -0.000000 -0.000000  0.000000 -0.000000 -0.000000  0.062252
  3S   2py       -0.000474 -0.006910  0.009882 -0.073310 -0.000000 -0.000000
                      6         7         8         9        10        11
                  -0.64046  -0.46854  -0.35094  -0.25043  -0.17989  -0.06590
                   2.00000   2.00000   2.00000   2.00000   2.00000   2.00000
                  --------  --------  --------  --------  --------  --------
  0C   1s         0.189936  0.124710  0.000000  0.053125  0.000000  0.000000
  0C   2s        -0.539469 -0.400570 -0.000000 -0.232799 -0.000000 -0.000000
  0C   1pz        0.000000  0.000000 -0.000000  0.000000 -0.638030 -0.000000
  0C   1px        0.000000  0.000000 -0.568765  0.000000  0.000000  0.027909
  0C   1py        0.096296 -0.303483  0.000000  0.494058  0.000000  0.000000
  1H   1s        -0.130884 -0.244822 -0.393776  0.157077 -0.000000  0.208222
  2H   1s        -0.130884 -0.244822  0.393776  0.157077 -0.000000 -0.208222
  3S   1s        -0.059673  0.066785  0.000000  0.045329  0.000000  0.000000
  3S   2s         0.203836 -0.222390 -0.000000 -0.142341 -0.000000 -0.000000
  3S   1pz       -0.000000 -0.000000  0.000000 -0.000000  0.227060  0.000000
  3S   1px       -0.000000 -0.000000  0.055222 -0.000000 -0.000000  0.316941
  3S   1py        0.069984 -0.005154  0.000000  0.207048  0.000000  0.000000
  3S   3s        -0.523969  0.676248  0.000000  0.575314  0.000000  0.000000
  3S   2pz        0.000000  0.000000 -0.000000  0.000000 -0.698003 -0.000000
  3S   2px        0.000000  0.000000 -0.151540  0.000000  0.000000 -1.010242
  3S   2py       -0.158353  0.015840 -0.000000 -0.575804 -0.000000 -0.000000
                     12        13        14        15
                  -0.00419   0.29306   0.40963   0.43813
                   0.00000   0.00000   0.00000   0.00000
                  --------  --------  --------  --------
  0C   1s        -0.000000  0.202217  0.108322 -0.000000
  0C   2s         0.000000 -1.182446 -0.700870  0.000000
  0C   1pz       -0.786521 -0.000000 -0.000000 -0.000000
  0C   1px       -0.000000  0.000000  0.000000  1.145267
  0C   1py        0.000000  0.487668 -1.012520  0.000000
  1H   1s         0.000000  0.428252  0.802159 -0.863126
  2H   1s        -0.000000  0.428252  0.802159  0.863126
  3S   1s        -0.000000  0.029441 -0.014504 -0.000000
  3S   2s         0.000000 -0.082776  0.038058  0.000000
  3S   1pz       -0.236770 -0.000000 -0.000000 -0.000000
  3S   1px       -0.000000  0.000000  0.000000  0.062784
  3S   1py        0.000000 -0.259830  0.108402  0.000000
  3S   3s        -0.000000  0.509596 -0.284591 -0.000000
  3S   2pz        0.779290  0.000000  0.000000  0.000000
  3S   2px        0.000000 -0.000000 -0.000000 -0.231423
  3S   2py       -0.000000  0.981407 -0.437939 -0.000000

MULLIKEN ATOMIC CHARGES
-----------------------
   0 C :   -0.260875
   1 H :    0.079934
   2 H :    0.079934
   3 S :    0.101007
Sum of atomic charges:   -0.0000000

LOEWDIN ATOMIC CHARGES
----------------------
   0 C :   -0.178636
   1 H :    0.038058
   2 H :    0.038058
   3 S :    0.102520

  Mayer bond orders larger than 0.1
B(  0-C ,  1-H ) :   0.9510 B(  0-C ,  2-H ) :   0.9510 B(  0-C ,  3-S ) :   2.0177

-----------------------------------------------------------------------------
         ABSORPTION SPECTRUM VIA TRANSITION ELECTRIC DIPOLE MOMENTS
-----------------------------------------------------------------------------
State   Energy  Wavelength   fosc         T2         TX        TY        TZ
        (cm-1)    (nm)                  (au**2)     (au)      (au)      (au)
-----------------------------------------------------------------------------
   1   16562.4    603.8   0.000000000   0.00000  -0.00000   0.00000   0.00000
   2   59932.6    166.9   0.023053422   0.12663   0.00000   0.00000   0.35586
   3   10068.4    993.2   spin forbidden (mult=3)
   4   23501.0    425.5   spin forbidden (mult=3)

FINAL SINGLE POINT ENERGY      -432.510261274925

DIPOLE MOMENT
-------------
                                X             Y             Z
Electronic contribution:     -0.00000      -2.94031       0.00000
Nuclear contribution   :      0.00000       3.20711       0.00000
                        -----------------------------------------
Total Dipole Moment    :     -0.00000       0.26679       0.00000
                        -----------------------------------------
Magnitude (a.u.)       :      0.26679
Magnitude (Debye)      :      0.67813

                             ****ORCA TERMINATED NORMALLY****
TOTAL RUN TIME: 0 days 0 hours 0 minutes 1 seconds 994 msec
